{"DBSources": [], "LogicalSources": [{"name": "Calculation_JSONSource_1", "source": "https://huanyu-li.github.io/data/mp/mp-calculation-1K.json", "referenceFormulation": "ql:JSONPath", "iterator": "$.data[*]"}, {"name": "FormationEnergy_Property_JSONSource_2", "source": "https://huanyu-li.github.io/data/oqmd/oqmd-formationenergy-1K.json", "referenceFormulation": "ql:JSONPath", "iterator": "$.data[*]"}, {"name": "BandGap_Property_JSONSource_2", "source": "https://huanyu-li.github.io/data/oqmd/oqmd-bandgap-1K.json", "referenceFormulation": "ql:JSONPath", "iterator": "$.data[*]"}, {"name": "Composition_JSONSource_1", "source": "https://huanyu-li.github.io/data/mp/mp-composition-1K.json", "referenceFormulation": "ql:JSONPath", "iterator": "$.data[*]"}, {"name": "Calculation_JSONSource_2", "source": "https://huanyu-li.github.io/data/oqmd/oqmd-calculation-1K.json", "referenceFormulation": "ql:JSONPath", "iterator": "$.data[*]"}, {"name": "Composition_JSONSource_2", "source": "https://huanyu-li.github.io/data/oqmd/oqmd-composition-1K.json", "referenceFormulation": "ql:JSONPath", "iterator": "$.data[*]"}, {"name": "FormationEnergy_Property_JSONSource_1", "source": "https://huanyu-li.github.io/data/mp/mp-formationenergy-1K.json", "referenceFormulation": "ql:JSONPath", "iterator": "$.data[*]"}, {"name": "Structure_JSONSource_1", "source": "https://huanyu-li.github.io/data/mp/mp-structure-1K.json", "referenceFormulation": "ql:JSONPath", "iterator": "$.data[*]"}, {"name": "Structure_JSONSource_2", "source": "https://huanyu-li.github.io/data/oqmd/oqmd-structure-1K.json", "referenceFormulation": "ql:JSONPath", "iterator": "$.data[*]"}, {"name": "BandGap_Property_JSONSource_1", "source": "https://huanyu-li.github.io/data/mp/mp-bandgap-1K.json", "referenceFormulation": "ql:JSONPath", "iterator": "$.data[*]"}], "Mappings": [{"name": "Composition_Mapping_2", "logicalSource": "Composition_JSONSource_2", "subjectMap": {"template": "http://example.com/composition/{entry_id}", "class": "Composition"}, "predicateObjectMap": [{"predicate": "ReducedFormula", "objectMap": {"reference": "name", "datatype": "string"}}]}, {"name": "Calculation_Mapping_1", "logicalSource": "Calculation_JSONSource_1", "subjectMap": {"template": "http://example.com/calculation/{material_id}", "class": "Calculation"}, "predicateObjectMap": [{"predicate": "hasOutputCalculatedProperty", "objectMap": {"parentTriplesMap": "FormationEnergy_Mapping_1", "joinCondition": {"child": "material_id", "parent": "material_id"}}}, {"predicate": "ID", "objectMap": {"reference": "material_id", "datatype": "string"}}, {"predicate": "hasOutputCalculatedProperty", "objectMap": {"parentTriplesMap": "BandGap_Mapping_1", "joinCondition": {"child": "material_id", "parent": "material_id"}}}, {"predicate": "hasOutputStructure", "objectMap": {"parentTriplesMap": "Structure_Mapping_1", "joinCondition": {"child": "material_id", "parent": "material_id"}}}]}, {"name": "BandGap_Mapping_1", "logicalSource": "BandGap_Property_JSONSource_1", "subjectMap": {"template": "http://example.com/property/bandgap/{material_id}", "class": "CalculatedProperty"}, "predicateObjectMap": [{"predicate": "numericalValue", "objectMap": {"reference": "band_gap", "datatype": "float"}}, {"predicate": "PropertyName", "objectMap": {"constant": "Band Gap", "datatype": "string"}}]}, {"name": "Calculation_Mapping_2", "logicalSource": "Calculation_JSONSource_2", "subjectMap": {"template": "http://example.com/calculation/{entry_id}", "class": "Calculation"}, "predicateObjectMap": [{"predicate": "hasOutputCalculatedProperty", "objectMap": {"parentTriplesMap": "FormationEnergy_Mapping_2", "joinCondition": {"child": "entry_id", "parent": "entry_id"}}}, {"predicate": "hasOutputCalculatedProperty", "objectMap": {"parentTriplesMap": "BandGap_Mapping_2", "joinCondition": {"child": "entry_id", "parent": "entry_id"}}}, {"predicate": "ID", "objectMap": {"reference": "entry_id", "datatype": "string"}}, {"predicate": "hasOutputStructure", "objectMap": {"parentTriplesMap": "Structure_Mapping_2", "joinCondition": {"child": "entry_id", "parent": "entry_id"}}}]}, {"name": "Structure_Mapping_2", "logicalSource": "Structure_JSONSource_2", "subjectMap": {"template": "http://example.com/structure/{entry_id}", "class": "Structure"}, "predicateObjectMap": [{"predicate": "hasComposition", "objectMap": {"parentTriplesMap": "Composition_Mapping_2", "joinCondition": {"child": "entry_id", "parent": "entry_id"}}}, {"predicate": "StructureID", "objectMap": {"reference": "entry_id", "datatype": "string"}}]}, {"name": "Composition_Mapping_1", "logicalSource": "Composition_JSONSource_1", "subjectMap": {"template": "http://example.com/composition/{material_id}", "class": "Composition"}, "predicateObjectMap": [{"predicate": "ReducedFormula", "objectMap": {"reference": "formula_pretty", "datatype": "string"}}]}, {"name": "FormationEnergy_Mapping_2", "logicalSource": "FormationEnergy_Property_JSONSource_2", "subjectMap": {"template": "http://example.com/property/formationenergy/{entry_id}", "class": "CalculatedProperty"}, "predicateObjectMap": [{"predicate": "PropertyName", "objectMap": {"constant": "Formation Energy", "datatype": "string"}}, {"predicate": "numericalValue", "objectMap": {"reference": "delta_e", "datatype": "float"}}]}, {"name": "Structure_Mapping_1", "logicalSource": "Structure_JSONSource_1", "subjectMap": {"template": "http://example.com/structure/{material_id}", "class": "Structure"}, "predicateObjectMap": [{"predicate": "hasComposition", "objectMap": {"parentTriplesMap": "Composition_Mapping_1", "joinCondition": {"child": "material_id", "parent": "material_id"}}}, {"predicate": "StructureID", "objectMap": {"reference": "material_id", "datatype": "string"}}]}, {"name": "FormationEnergy_Mapping_1", "logicalSource": "FormationEnergy_Property_JSONSource_1", "subjectMap": {"template": "http://example.com/property/formationenergy/{material_id}", "class": "CalculatedProperty"}, "predicateObjectMap": [{"predicate": "numericalValue", "objectMap": {"reference": "energy", "datatype": "float"}}, {"predicate": "PropertyName", "objectMap": {"constant": "Formation Energy", "datatype": "string"}}]}, {"name": "BandGap_Mapping_2", "logicalSource": "BandGap_Property_JSONSource_2", "subjectMap": {"template": "http://example.com/property/bandgap/{entry_id}", "class": "CalculatedProperty"}, "predicateObjectMap": [{"predicate": "numericalValue", "objectMap": {"reference": "band_gap", "datatype": "float"}}, {"predicate": "PropertyName", "objectMap": {"constant": "Band Gap", "datatype": "string"}}]}]}