{"DBSources": [{"name": "OQMD_DB", "server": "jdbc:mysql://127.0.0.1:3306/ODGSG_OQMD", "username": "root", "password": "123456"}, {"name": "MP_DB", "server": "jdbc:mysql://127.0.0.1:3306/ODGSG_MP", "username": "root", "password": "123456"}], "LogicalSources": [{"name": "Calculation_MySQL_Source_2", "source": "OQMD_DB", "referenceFormulation": "ql:CSV", "table": "Calculation1K", "query": "", "iterator": ""}, {"name": "BandGap_MySQL_Source_2", "source": "OQMD_DB", "referenceFormulation": "ql:CSV", "table": "BandGap1K", "query": "", "iterator": ""}, {"name": "Composition_MySQL_Source_1", "source": "MP_DB", "referenceFormulation": "ql:CSV", "table": "Composition1K", "query": "", "iterator": ""}, {"name": "Composition_MySQL_Source_2", "source": "OQMD_DB", "referenceFormulation": "ql:CSV", "table": "Composition1K", "query": "", "iterator": ""}, {"name": "BandGap_MySQL_Source_1", "source": "MP_DB", "referenceFormulation": "ql:CSV", "table": "BandGap1K", "query": "", "iterator": ""}, {"name": "FormationEnergy_MySQL_Source_2", "source": "OQMD_DB", "referenceFormulation": "ql:CSV", "table": "FormationEnergy1K", "query": "", "iterator": ""}, {"name": "Structure_MySQL_Source_1", "source": "MP_DB", "referenceFormulation": "ql:CSV", "table": "Structure1K", "query": "", "iterator": ""}, {"name": "Structure_MySQL_Source_2", "source": "OQMD_DB", "referenceFormulation": "ql:CSV", "table": "Structure1K", "query": "", "iterator": ""}, {"name": "FormationEnergy_MySQL_Source_1", "source": "MP_DB", "referenceFormulation": "ql:CSV", "table": "FormationEnergy1K", "query": "", "iterator": ""}, {"name": "Calculation_MySQL_Source_1", "source": "MP_DB", "referenceFormulation": "ql:CSV", "table": "Calculation1K", "query": "", "iterator": ""}], "Mappings": [{"name": "Composition_Mapping_1", "logicalSource": "Composition_MySQL_Source_1", "subjectMap": {"template": "http://example.com/composition/{material_id}", "class": "Composition"}, "predicateObjectMap": [{"predicate": "ReducedFormula", "objectMap": {"reference": "formula_pretty", "datatype": "string"}}]}, {"name": "FormationEnergy_Mapping_1", "logicalSource": "FormationEnergy_MySQL_Source_1", "subjectMap": {"template": "http://example.com/property/formationenergy/{material_id}", "class": "CalculatedProperty"}, "predicateObjectMap": [{"predicate": "numericalValue", "objectMap": {"reference": "energy", "datatype": "float"}}, {"predicate": "PropertyName", "objectMap": {"constant": "Formation Energy", "datatype": "string"}}]}, {"name": "BandGap_Mapping_2", "logicalSource": "BandGap_MySQL_Source_2", "subjectMap": {"template": "http://example.com/property/bandgap/{entry_id}", "class": "CalculatedProperty"}, "predicateObjectMap": [{"predicate": "PropertyName", "objectMap": {"constant": "Band Gap", "datatype": "string"}}, {"predicate": "numericalValue", "objectMap": {"reference": "band_gap", "datatype": "float"}}]}, {"name": "FormationEnergy_Mapping_2", "logicalSource": "FormationEnergy_MySQL_Source_2", "subjectMap": {"template": "http://example.com/property/formationenergy/{entry_id}", "class": "CalculatedProperty"}, "predicateObjectMap": [{"predicate": "numericalValue", "objectMap": {"reference": "delta_e", "datatype": "float"}}, {"predicate": "PropertyName", "objectMap": {"constant": "Formation Energy", "datatype": "string"}}]}, {"name": "Calculation_Mapping_2", "logicalSource": "Calculation_MySQL_Source_2", "subjectMap": {"template": "http://example.com/calculation/{entry_id}", "class": "Calculation"}, "predicateObjectMap": [{"predicate": "hasOutputCalculatedProperty", "objectMap": {"parentTriplesMap": "BandGap_Mapping_2", "joinCondition": {"child": "entry_id", "parent": "entry_id"}}}, {"predicate": "ID", "objectMap": {"reference": "entry_id", "datatype": "string"}}, {"predicate": "hasOutputCalculatedProperty", "objectMap": {"parentTriplesMap": "FormationEnergy_Mapping_2", "joinCondition": {"child": "entry_id", "parent": "entry_id"}}}, {"predicate": "hasOutputStructure", "objectMap": {"parentTriplesMap": "Structure_Mapping_2", "joinCondition": {"child": "entry_id", "parent": "entry_id"}}}]}, {"name": "BandGap_Mapping_1", "logicalSource": "BandGap_MySQL_Source_1", "subjectMap": {"template": "http://example.com/property/bandgap/{material_id}", "class": "CalculatedProperty"}, "predicateObjectMap": [{"predicate": "numericalValue", "objectMap": {"reference": "band_gap", "datatype": "float"}}, {"predicate": "PropertyName", "objectMap": {"constant": "Band Gap", "datatype": "string"}}]}, {"name": "Structure_Mapping_2", "logicalSource": "Structure_MySQL_Source_2", "subjectMap": {"template": "http://example.com/structure/{entry_id}", "class": "Structure"}, "predicateObjectMap": [{"predicate": "StructureID", "objectMap": {"reference": "entry_id", "datatype": "string"}}, {"predicate": "hasComposition", "objectMap": {"parentTriplesMap": "Composition_Mapping_2", "joinCondition": {"child": "entry_id", "parent": "entry_id"}}}]}, {"name": "Composition_Mapping_2", "logicalSource": "Composition_MySQL_Source_2", "subjectMap": {"template": "http://example.com/composition/{entry_id}", "class": "Composition"}, "predicateObjectMap": [{"predicate": "ReducedFormula", "objectMap": {"reference": "name", "datatype": "string"}}]}, {"name": "Structure_Mapping_1", "logicalSource": "Structure_MySQL_Source_1", "subjectMap": {"template": "http://example.com/structure/{material_id}", "class": "Structure"}, "predicateObjectMap": [{"predicate": "StructureID", "objectMap": {"reference": "material_id", "datatype": "string"}}, {"predicate": "hasComposition", "objectMap": {"parentTriplesMap": "Composition_Mapping_1", "joinCondition": {"child": "material_id", "parent": "material_id"}}}]}, {"name": "Calculation_Mapping_1", "logicalSource": "Calculation_MySQL_Source_1", "subjectMap": {"template": "http://example.com/calculation/{material_id}", "class": "Calculation"}, "predicateObjectMap": [{"predicate": "hasOutputCalculatedProperty", "objectMap": {"parentTriplesMap": "BandGap_Mapping_1", "joinCondition": {"child": "material_id", "parent": "material_id"}}}, {"predicate": "ID", "objectMap": {"reference": "material_id", "datatype": "string"}}, {"predicate": "hasOutputCalculatedProperty", "objectMap": {"parentTriplesMap": "FormationEnergy_Mapping_1", "joinCondition": {"child": "material_id", "parent": "material_id"}}}, {"predicate": "hasOutputStructure", "objectMap": {"parentTriplesMap": "Structure_Mapping_1", "joinCondition": {"child": "material_id", "parent": "material_id"}}}]}]}